! AWR Design Environment (4936) Fri Nov 11 17:04:03 2011
! Ports: 2, Freqs: 400
# GHz S MA R 50
!-----------------------------------------------------------------------------
!Freq         MagS11       AngS11             AngS21       MagS12       AngS12       MagS22       AngS22
 0.1          0.99983     -1.7382       3.7702       178.74       0.0019997    88.977       0.8841      -0.51802     
 0.2          0.99958     -3.4757       3.7685       177.49       0.0039975    87.968       0.88391     -1.0356      
 0.3          0.99917     -5.2115       3.7656       176.23       0.0059916    86.958       0.88358     -1.5525      
 0.4          0.99861     -6.9448       3.7616       174.98       0.0079802    85.948       0.88313     -2.0681      
 0.5          0.99788     -8.6749       3.7565       173.73       0.0099614    84.941       0.88255     -2.5822      
 0.6          0.99699     -10.401       3.7502       172.48       0.011934     83.936       0.88184     -3.0944      
 0.7          0.99595     -12.122       3.7428       171.23       0.013895     82.935       0.88101     -3.6042      
 0.8          0.99476     -13.838       3.7344       169.99       0.015844     81.939       0.88006     -4.1114      
 0.9          0.99342     -15.547       3.7249       168.76       0.017778     80.947       0.879       -4.6156      
 1            0.99193     -17.25        3.7144       167.53       0.019697     79.96        0.87782     -5.1165      
 1.1          0.99031     -18.944       3.7029       166.31       0.021599     78.979       0.87652     -5.6137      
 1.2          0.98856     -20.63        3.6904       165.09       0.023482     78.005       0.87513     -6.107       
 1.3          0.98667     -22.307       3.677        163.88       0.025345     77.037       0.87363     -6.596       
 1.4          0.98466     -23.975       3.6626       162.67       0.027187     76.076       0.87203     -7.0805      
 1.5          0.98253     -25.632       3.6474       161.48       0.029007     75.123       0.87034     -7.5602      
 1.6          0.98029     -27.278       3.6313       160.29       0.030803     74.179       0.86855     -8.035       
 1.7          0.97794     -28.913       3.6145       159.11       0.032574     73.243       0.86669     -8.5046      
 1.8          0.97549     -30.535       3.5968       157.94       0.03432      72.315       0.86475     -8.9688      
 1.9          0.97295     -32.145       3.5785       156.78       0.036039     71.397       0.86273     -9.4274      
 2            0.97031     -33.743       3.5594       155.63       0.037732     70.489       0.86064     -9.8803      
 2.1          0.9676      -35.327       3.5397       154.49       0.039396     69.59        0.85849     -10.327      
 2.2          0.96481     -36.897       3.5194       153.36       0.041033     68.701       0.85628     -10.768      
 2.3          0.96195     -38.453       3.4985       152.23       0.04264      67.823       0.85401     -11.204      
 2.4          0.95902     -39.994       3.4771       151.12       0.044218     66.955       0.8517      -11.632      
 2.5          0.95604     -41.521       3.4552       150.02       0.045767     66.098       0.84934     -12.055      
 2.6          0.953       -43.033       3.4329       148.94       0.047285     65.252       0.84694     -12.472      
 2.7          0.94992     -44.529       3.4101       147.86       0.048774     64.417       0.84451     -12.882      
 2.8          0.9468      -46.01        3.3869       146.79       0.050232     63.593       0.84205     -13.286      
 2.9          0.94364     -47.475       3.3634       145.74       0.05166      62.781       0.83956     -13.683      
 3            0.94046     -48.924       3.3396       144.69       0.053058     61.979       0.83705     -14.075      
 3.1          0.93724     -50.358       3.3155       143.66       0.054425     61.189       0.83452     -14.46       
 3.2          0.93401     -51.775       3.2912       142.64       0.055763     60.411       0.83198     -14.839      
 3.3          0.93076     -53.176       3.2666       141.63       0.05707      59.644       0.82943     -15.212      
 3.4          0.92751     -54.56        3.2419       140.63       0.058347     58.889       0.82687     -15.578      
 3.5          0.92424     -55.928       3.217        139.65       0.059596     58.144       0.82431     -15.939      
 3.6          0.92097     -57.28        3.192        138.67       0.060814     57.412       0.82175     -16.294      
 3.7          0.91771     -58.615       3.1668       137.71       0.062004     56.691       0.8192      -16.643      
 3.8          0.91445     -59.934       3.1417       136.76       0.063166     55.981       0.81665     -16.986      
 3.9          0.91119     -61.236       3.1164       135.81       0.064299     55.282       0.81411     -17.324      
 4            0.90795     -62.522       3.0912       134.88       0.065405     54.595       0.81158     -17.656      
 4.1          0.90473     -63.791       3.0659       133.97       0.066483     53.919       0.80907     -17.983      
 4.2          0.90152     -65.044       3.0406       133.06       0.067534     53.254       0.80658     -18.304      
 4.3          0.89833     -66.282       3.0154       132.16       0.068559     52.599       0.8041      -18.62       
 4.4          0.89516     -67.502       2.9903       131.28       0.069558     51.956       0.80164     -18.931      
 4.5          0.89202     -68.707       2.9652       130.4        0.070532     51.323       0.79921     -19.238      
 4.6          0.8889      -69.896       2.9402       129.54       0.07148      50.701       0.79679     -19.539      
 4.7          0.88582     -71.07        2.9153       128.69       0.072404     50.089       0.79441     -19.836      
 4.8          0.88276     -72.227       2.8905       127.84       0.073305     49.488       0.79205     -20.128      
 4.9          0.87973     -73.369       2.8658       127.01       0.074182     48.897       0.78972     -20.416      
 5            0.87674     -74.496       2.8413       126.19       0.075036     48.316       0.78741     -20.7        
 5.1          0.87378     -75.607       2.8169       125.38       0.075867     47.745       0.78514     -20.979      
 5.2          0.87086     -76.703       2.7927       124.57       0.076677     47.183       0.7829      -21.255      
 5.3          0.86797     -77.785       2.7687       123.78       0.077466     46.632       0.78069     -21.526      
 5.4          0.86512     -78.851       2.7448       123          0.078234     46.089       0.77851     -21.794      
 5.5          0.86231     -79.903       2.7212       122.22       0.078981     45.556       0.77636     -22.059      
 5.6          0.85954     -80.941       2.6977       121.46       0.079709     45.032       0.77425     -22.319      
 5.7          0.8568      -81.964       2.6744       120.7        0.080417     44.518       0.77217     -22.577      
 5.8          0.8541      -82.974       2.6513       119.96       0.081107     44.011       0.77013     -22.831      
 5.9          0.85145     -83.969       2.6285       119.22       0.081779     43.514       0.76811     -23.082      
 6            0.84883     -84.951       2.6058       118.49       0.082432     43.025       0.76614     -23.329      
 6.1          0.84626     -85.919       2.5834       117.77       0.083068     42.545       0.76419     -23.574      
 6.2          0.84372     -86.874       2.5612       117.06       0.083688     42.073       0.76228     -23.817      
 6.3          0.84123     -87.816       2.5392       116.35       0.084291     41.609       0.76041     -24.056      
 6.4          0.83877     -88.745       2.5175       115.65       0.084878     41.152       0.75857     -24.293      
 6.5          0.83636     -89.661       2.496        114.97       0.085449     40.704       0.75676     -24.527      
 6.6          0.83398     -90.564       2.4747       114.28       0.086005     40.263       0.75499     -24.759      
 6.7          0.83164     -91.456       2.4536       113.61       0.086547     39.83        0.75325     -24.989      
 6.8          0.82935     -92.334       2.4328       112.95       0.087074     39.404       0.75155     -25.216      
 6.9          0.82709     -93.201       2.4122       112.29       0.087588     38.985       0.74987     -25.442      
 7            0.82487     -94.056       2.3918       111.64       0.088088     38.573       0.74824     -25.665      
 7.1          0.82269     -94.9         2.3717       110.99       0.088575     38.169       0.74663     -25.887      
 7.2          0.82055     -95.732       2.3518       110.35       0.089049     37.77        0.74506     -26.106      
 7.3          0.81845     -96.552       2.3322       109.72       0.08951      37.379       0.74352     -26.324      
 7.4          0.81639     -97.362       2.3128       109.1        0.08996      36.994       0.74201     -26.54       
 7.5          0.81436     -98.161       2.2936       108.48       0.090398     36.616       0.74053     -26.754      
 7.6          0.81237     -98.949       2.2746       107.87       0.090824     36.243       0.73908     -26.967      
 7.7          0.81041     -99.726       2.2559       107.26       0.091239     35.877       0.73767     -27.178      
 7.8          0.80849     -100.49       2.2374       106.66       0.091644     35.517       0.73628     -27.388      
 7.9          0.8066      -101.25       2.2191       106.07       0.092038     35.163       0.73492     -27.597      
 8            0.80475     -102          2.2011       105.48       0.092422     34.814       0.7336      -27.804      
 8.1          0.80294     -102.73       2.1833       104.9        0.092796     34.472       0.7323      -28.01       
 8.2          0.80116     -103.46       2.1657       104.33       0.093161     34.134       0.73103     -28.215      
 8.3          0.79941     -104.18       2.1483       103.76       0.093516     33.802       0.72979     -28.419      
 8.4          0.79769     -104.88       2.1312       103.19       0.093862     33.476       0.72858     -28.621      
 8.5          0.796       -105.58       2.1142       102.63       0.0942       33.154       0.72739     -28.823      
 8.6          0.79435     -106.27       2.0975       102.08       0.094528     32.838       0.72623     -29.024      
 8.7          0.79273     -106.95       2.081        101.53       0.094849     32.527       0.7251      -29.223      
 8.8          0.79114     -107.63       2.0647       100.98       0.095161     32.22        0.72399     -29.422      
 8.9          0.78957     -108.29       2.0486       100.45       0.095466     31.919       0.72291     -29.62       
 9            0.78804     -108.94       2.0327       99.911       0.095763     31.622       0.72185     -29.817      
 9.1          0.78654     -109.59       2.017        99.381       0.096052     31.33        0.72082     -30.014      
 9.2          0.78506     -110.23       2.0015       98.856       0.096334     31.042       0.71981     -30.21       
 9.3          0.78361     -110.86       1.9862       98.335       0.096609     30.758       0.71883     -30.405      
 9.4          0.78219     -111.48       1.9711       97.819       0.096878     30.479       0.71787     -30.599      
 9.5          0.7808      -112.09       1.9562       97.307       0.09714      30.204       0.71693     -30.793      
 9.6          0.77943     -112.7        1.9415       96.8         0.097395     29.934       0.71601     -30.986      
 9.7          0.77809     -113.3        1.9269       96.296       0.097644     29.667       0.71512     -31.179      
 9.8          0.77677     -113.89       1.9126       95.797       0.097887     29.405       0.71425     -31.371      
 9.9          0.77548     -114.48       1.8984       95.302       0.098123     29.146       0.7134      -31.562      
 10           0.77421     -115.05       1.8844       94.811       0.098355     28.891       0.71257     -31.753      
 10.1         0.77297     -115.62       1.8706       94.324       0.09858      28.64        0.71176     -31.944      
 10.2         0.77174     -116.19       1.857        93.84        0.0988       28.393       0.71097     -32.134      
 10.3         0.77055     -116.74       1.8435       93.36        0.099015     28.149       0.7102      -32.324      
 10.4         0.76937     -117.29       1.8302       92.884       0.099224     27.908       0.70945     -32.514      
 10.5         0.76822     -117.84       1.8171       92.412       0.099428     27.672       0.70871     -32.703      
 10.6         0.76709     -118.37       1.8042       91.943       0.099628     27.438       0.708       -32.891      
 10.7         0.76597     -118.9        1.7914       91.477       0.099822     27.208       0.7073      -33.08       
 10.8         0.76488     -119.43       1.7787       91.015       0.10001      26.981       0.70663     -33.268      
 10.9         0.76381     -119.94       1.7662       90.557       0.1002       26.758       0.70597     -33.456      
 11           0.76276     -120.46       1.7539       90.101       0.10038      26.538       0.70532     -33.643      
 11.1         0.76173     -120.96       1.7418       89.649       0.10056      26.32        0.7047      -33.831      
 11.2         0.76072     -121.46       1.7297       89.2         0.10073      26.106       0.70409     -34.018      
 11.3         0.75973     -121.96       1.7179       88.754       0.1009       25.895       0.7035      -34.205      
 11.4         0.75875     -122.45       1.7062       88.311       0.10106      25.686       0.70292     -34.391      
 11.5         0.7578      -122.93       1.6946       87.872       0.10122      25.481       0.70236     -34.578      
 11.6         0.75686     -123.41       1.6831       87.435       0.10138      25.278       0.70181     -34.764      
 11.7         0.75593     -123.88       1.6718       87.001       0.10153      25.078       0.70128     -34.95       
 11.8         0.75503     -124.35       1.6607       86.57        0.10168      24.881       0.70076     -35.136      
 11.9         0.75414     -124.81       1.6497       86.142       0.10183      24.686       0.70026     -35.322      
 12           0.75327     -125.26       1.6388       85.716       0.10197      24.494       0.69977     -35.508      
 12.1         0.75241     -125.72       1.628        85.293       0.10211      24.305       0.6993      -35.693      
 12.2         0.75157     -126.16       1.6174       84.873       0.10224      24.118       0.69884     -35.878      
 12.3         0.75074     -126.6        1.6069       84.456       0.10238      23.934       0.69839     -36.064      
 12.4         0.74993     -127.04       1.5965       84.041       0.1025       23.752       0.69796     -36.249      
 12.5         0.74913     -127.47       1.5863       83.628       0.10263      23.572       0.69754     -36.434      
 12.6         0.74835     -127.9        1.5762       83.218       0.10275      23.395       0.69713     -36.619      
 12.7         0.74758     -128.32       1.5661       82.811       0.10288      23.22        0.69673     -36.804      
 12.8         0.74683     -128.74       1.5563       82.406       0.10299      23.047       0.69635     -36.988      
 12.9         0.74609     -129.16       1.5465       82.003       0.10311      22.877       0.69598     -37.173      
 13           0.74536     -129.57       1.5368       81.603       0.10322      22.708       0.69562     -37.358      
 13.1         0.74464     -129.97       1.5273       81.205       0.10333      22.542       0.69527     -37.542      
 13.2         0.74394     -130.37       1.5179       80.809       0.10344      22.378       0.69493     -37.727      
 13.3         0.74325     -130.77       1.5085       80.415       0.10354      22.216       0.6946      -37.911      
 13.4         0.74257     -131.17       1.4993       80.024       0.10364      22.056       0.69429     -38.096      
 13.5         0.74191     -131.55       1.4902       79.635       0.10374      21.898       0.69398     -38.28       
 13.6         0.74125     -131.94       1.4812       79.248       0.10384      21.742       0.69369     -38.464      
 13.7         0.74061     -132.32       1.4723       78.863       0.10394      21.588       0.69341     -38.648      
 13.8         0.73998     -132.7        1.4635       78.48        0.10403      21.436       0.69313     -38.832      
 13.9         0.73935     -133.07       1.4548       78.099       0.10412      21.285       0.69287     -39.017      
 14           0.73874     -133.44       1.4462       77.72        0.10421      21.137       0.69261     -39.201      
 14.1         0.73814     -133.81       1.4377       77.343       0.1043       20.99        0.69237     -39.385      
 14.2         0.73756     -134.17       1.4293       76.968       0.10438      20.845       0.69213     -39.569      
 14.3         0.73698     -134.53       1.421        76.595       0.10446      20.702       0.69191     -39.753      
 14.4         0.73641     -134.89       1.4127       76.224       0.10454      20.56        0.69169     -39.937      
 14.5         0.73585     -135.24       1.4046       75.854       0.10462      20.421       0.69148     -40.121      
 14.6         0.7353      -135.59       1.3966       75.487       0.1047       20.283       0.69128     -40.304      
 14.7         0.73476     -135.93       1.3886       75.121       0.10477      20.146       0.69109     -40.488      
 14.8         0.73422     -136.28       1.3807       74.757       0.10485      20.011       0.69091     -40.672      
 14.9         0.7337      -136.62       1.3729       74.395       0.10492      19.878       0.69073     -40.856      
 15           0.73319     -136.95       1.3652       74.035       0.10499      19.746       0.69057     -41.04       
 15.1         0.73268     -137.28       1.3576       73.676       0.10506      19.616       0.69041     -41.223      
 15.2         0.73219     -137.61       1.3501       73.319       0.10512      19.487       0.69026     -41.407      
 15.3         0.7317      -137.94       1.3426       72.963       0.10519      19.36        0.69011     -41.591      
 15.4         0.73122     -138.27       1.3353       72.61        0.10525      19.234       0.68998     -41.775      
 15.5         0.73075     -138.59       1.328        72.258       0.10531      19.11        0.68985     -41.958      
 15.6         0.73028     -138.9        1.3208       71.907       0.10537      18.987       0.68973     -42.142      
 15.7         0.72983     -139.22       1.3136       71.558       0.10543      18.866       0.68962     -42.325      
 15.8         0.72938     -139.53       1.3066       71.211       0.10549      18.745       0.68951     -42.509      
 15.9         0.72894     -139.84       1.2996       70.865       0.10554      18.627       0.68941     -42.693      
 16           0.7285      -140.15       1.2926       70.52        0.1056       18.509       0.68932     -42.876      
 16.1         0.72807     -140.45       1.2858       70.177       0.10565      18.393       0.68923     -43.06       
 16.2         0.72765     -140.75       1.279        69.836       0.1057       18.278       0.68915     -43.243      
 16.3         0.72724     -141.05       1.2723       69.496       0.10575      18.165       0.68908     -43.427      
 16.4         0.72683     -141.35       1.2657       69.157       0.1058       18.052       0.68902     -43.61       
 16.5         0.72644     -141.64       1.2591       68.82        0.10585      17.941       0.68896     -43.793      
 16.6         0.72604     -141.93       1.2526       68.485       0.1059       17.831       0.6889      -43.977      
 16.7         0.72566     -142.22       1.2462       68.15        0.10594      17.723       0.68885     -44.16       
 16.8         0.72527     -142.51       1.2398       67.817       0.10599      17.615       0.68881     -44.344      
 16.9         0.7249      -142.79       1.2335       67.486       0.10603      17.509       0.68878     -44.527      
 17           0.72453     -143.07       1.2272       67.155       0.10607      17.404       0.68875     -44.71       
 17.1         0.72417     -143.35       1.2211       66.827       0.10611      17.3         0.68872     -44.893      
 17.2         0.72381     -143.63       1.2149       66.499       0.10615      17.197       0.6887      -45.077      
 17.3         0.72346     -143.9        1.2089       66.172       0.10619      17.095       0.68869     -45.26       
 17.4         0.72312     -144.18       1.2029       65.847       0.10623      16.995       0.68868     -45.443      
 17.5         0.72278     -144.45       1.1969       65.524       0.10626      16.895       0.68868     -45.626      
 17.6         0.72244     -144.71       1.191        65.201       0.1063       16.796       0.68868     -45.809      
 17.7         0.72211     -144.98       1.1852       64.88        0.10633      16.699       0.68869     -45.992      
 17.8         0.72179     -145.24       1.1794       64.56        0.10637      16.602       0.6887      -46.175      
 17.9         0.72147     -145.51       1.1737       64.241       0.1064       16.507       0.68872     -46.358      
 18           0.72116     -145.77       1.168        63.923       0.10643      16.412       0.68875     -46.541      
 18.1         0.72085     -146.02       1.1624       63.606       0.10646      16.319       0.68877     -46.724      
 18.2         0.72055     -146.28       1.1569       63.291       0.10649      16.226       0.68881     -46.906      
 18.3         0.72025     -146.53       1.1514       62.977       0.10652      16.135       0.68884     -47.089      
 18.4         0.71995     -146.78       1.1459       62.664       0.10655      16.044       0.68889     -47.272      
 18.5         0.71966     -147.03       1.1405       62.352       0.10658      15.955       0.68893     -47.455      
 18.6         0.71938     -147.28       1.1352       62.041       0.1066       15.866       0.68898     -47.637      
 18.7         0.7191      -147.53       1.1299       61.731       0.10663      15.778       0.68904     -47.82       
 18.8         0.71882     -147.77       1.1246       61.422       0.10665      15.691       0.6891      -48.002      
 18.9         0.71855     -148.01       1.1194       61.115       0.10668      15.605       0.68916     -48.185      
 19           0.71828     -148.25       1.1143       60.808       0.1067       15.52        0.68923     -48.367      
 19.1         0.71802     -148.49       1.1092       60.503       0.10672      15.435       0.6893      -48.549      
 19.2         0.71776     -148.73       1.1041       60.198       0.10675      15.352       0.68938     -48.732      
 19.3         0.71751     -148.96       1.0991       59.895       0.10677      15.269       0.68946     -48.914      
 19.4         0.71726     -149.2        1.0941       59.593       0.10679      15.188       0.68955     -49.096      
 19.5         0.71701     -149.43       1.0892       59.291       0.10681      15.107       0.68963     -49.278      
 19.6         0.71676     -149.66       1.0843       58.991       0.10683      15.027       0.68973     -49.46       
 19.7         0.71652     -149.89       1.0795       58.692       0.10684      14.947       0.68982     -49.642      
 19.8         0.71629     -150.11       1.0747       58.394       0.10686      14.869       0.68992     -49.824      
 19.9         0.71606     -150.34       1.0699       58.096       0.10688      14.791       0.69003     -50.006      
 20           0.71583     -150.56       1.0652       57.8         0.10689      14.714       0.69013     -50.187      
 20.1         0.7156      -150.79       1.0605       57.505       0.10691      14.638       0.69025     -50.369      
 20.2         0.71538     -151.01       1.0559       57.21        0.10692      14.562       0.69036     -50.55       
 20.3         0.71516     -151.22       1.0513       56.917       0.10694      14.488       0.69048     -50.732      
 20.4         0.71495     -151.44       1.0467       56.624       0.10695      14.414       0.6906      -50.913      
 20.5         0.71474     -151.66       1.0422       56.332       0.10696      14.341       0.69072     -51.095      
 20.6         0.71453     -151.87       1.0378       56.042       0.10698      14.268       0.69085     -51.276      
 20.7         0.71432     -152.09       1.0333       55.752       0.10699      14.196       0.69098     -51.457      
 20.8         0.71412     -152.3        1.0289       55.463       0.107        14.125       0.69112     -51.638      
 20.9         0.71392     -152.51       1.0246       55.175       0.10701      14.055       0.69126     -51.819      
 21           0.71373     -152.72       1.0202       54.888       0.10702      13.985       0.6914      -52          
 21.1         0.71354     -152.92       1.016        54.602       0.10703      13.916       0.69154     -52.181      
 21.2         0.71335     -153.13       1.0117       54.316       0.10704      13.848       0.69169     -52.362      
 21.3         0.71316     -153.33       1.0075       54.032       0.10705      13.78        0.69184     -52.542      
 21.4         0.71297     -153.54       1.0033       53.748       0.10706      13.713       0.69199     -52.723      
 21.5         0.71279     -153.74       0.99916      53.466       0.10706      13.647       0.69215     -52.903      
 21.6         0.71262     -153.94       0.99504      53.184       0.10707      13.581       0.69231     -53.084      
 21.7         0.71244     -154.14       0.99096      52.903       0.10708      13.516       0.69247     -53.264      
 21.8         0.71227     -154.34       0.98692      52.622       0.10708      13.451       0.69263     -53.444      
 21.9         0.7121      -154.54       0.9829       52.343       0.10709      13.388       0.6928      -53.624      
 22           0.71193     -154.73       0.97892      52.065       0.10709      13.324       0.69297     -53.804      
 22.1         0.71176     -154.93       0.97497      51.787       0.1071       13.262       0.69314     -53.984      
 22.2         0.7116      -155.12       0.97105      51.51        0.1071       13.2         0.69332     -54.164      
 22.3         0.71144     -155.31       0.96717      51.234       0.1071       13.138       0.6935      -54.344      
 22.4         0.71129     -155.5        0.96331      50.958       0.10711      13.077       0.69368     -54.523      
 22.5         0.71113     -155.69       0.95949      50.684       0.10711      13.017       0.69386     -54.703      
 22.6         0.71098     -155.88       0.95569      50.41        0.10711      12.958       0.69405     -54.882      
 22.7         0.71083     -156.07       0.95192      50.137       0.10712      12.899       0.69424     -55.061      
 22.8         0.71068     -156.26       0.94819      49.865       0.10712      12.84        0.69443     -55.24       
 22.9         0.71053     -156.44       0.94448      49.593       0.10712      12.782       0.69462     -55.419      
 23           0.71039     -156.62       0.9408       49.322       0.10712      12.725       0.69482     -55.598      
 23.1         0.71025     -156.81       0.93715      49.052       0.10712      12.668       0.69501     -55.777      
 23.2         0.71011     -156.99       0.93353      48.783       0.10712      12.612       0.69521     -55.956      
 23.3         0.70997     -157.17       0.92993      48.515       0.10712      12.556       0.69542     -56.134      
 23.4         0.70984     -157.35       0.92636      48.247       0.10712      12.501       0.69562     -56.313      
 23.5         0.70971     -157.53       0.92282      47.98        0.10712      12.446       0.69583     -56.491      
 23.6         0.70958     -157.71       0.91931      47.714       0.10711      12.392       0.69604     -56.669      
 23.7         0.70945     -157.88       0.91582      47.448       0.10711      12.338       0.69625     -56.847      
 23.8         0.70932     -158.06       0.91236      47.183       0.10711      12.285       0.69646     -57.025      
 23.9         0.7092      -158.23       0.90892      46.919       0.10711      12.232       0.69668     -57.203      
 24           0.70908     -158.41       0.90551      46.656       0.1071       12.18        0.69689     -57.381      
 24.1         0.70895     -158.58       0.90212      46.393       0.1071       12.128       0.69711     -57.558      
 24.2         0.70884     -158.75       0.89876      46.131       0.1071       12.077       0.69734     -57.736      
 24.3         0.70872     -158.92       0.89543      45.87        0.10709      12.027       0.69756     -57.913      
 24.4         0.7086      -159.09       0.89211      45.609       0.10709      11.976       0.69778     -58.09       
 24.5         0.70849     -159.26       0.88883      45.349       0.10708      11.927       0.69801     -58.267      
 24.6         0.70838     -159.43       0.88556      45.09        0.10708      11.878       0.69824     -58.444      
 24.7         0.70827     -159.6        0.88232      44.832       0.10707      11.829       0.69847     -58.621      
 24.8         0.70816     -159.77       0.8791       44.574       0.10707      11.781       0.69871     -58.798      
 24.9         0.70806     -159.93       0.87591      44.317       0.10706      11.733       0.69894     -58.974      