! AWR Design Environment (4936) Sun Mar 11 19:05:39 2012
! Ports: 2, Freqs: 500
# GHz S MA R 50
!-----------------------------------------------------------------------------
!Freq         MagS11       AngS11       MagS21       AngS21       MagS12       AngS12       MagS22       AngS22
 0.1          1           -0.2518       2.928        179.77       0.00054246   89.834       0.82669     -0.1449      
 0.2          0.99999     -0.50359      2.928        179.55       0.0010849    89.667       0.82669     -0.28981     
 0.3          0.99998     -0.75538      2.9279       179.32       0.0016273    89.501       0.82668     -0.4347      
 0.4          0.99997     -1.0072       2.9279       179.09       0.0021697    89.335       0.82666     -0.5796      
 0.5          0.99995     -1.2589       2.9278       178.86       0.0027121    89.168       0.82664     -0.72449     
 0.6          0.99992     -1.5107       2.9277       178.64       0.0032544    89.002       0.82662     -0.86937     
 0.7          0.9999      -1.7625       2.9276       178.41       0.0037967    88.836       0.82659     -1.0143      
 0.8          0.99986     -2.0142       2.9275       178.18       0.0043388    88.67        0.82656     -1.1591      
 0.9          0.99983     -2.2659       2.9273       177.95       0.0048809    88.503       0.82652     -1.304       
 1            0.99979     -2.5176       2.9272       177.73       0.005423     88.337       0.82648     -1.4488      
 1.1          0.99974     -2.7693       2.927        177.5        0.0059649    88.171       0.82644     -1.5936      
 1.2          0.9997      -3.021        2.9268       177.27       0.0065067    88.005       0.82639     -1.7385      
 1.3          0.99964     -3.2726       2.9266       177.05       0.0070483    87.839       0.82634     -1.8833      
 1.4          0.99959     -3.5242       2.9264       176.82       0.0075899    87.672       0.82628     -2.028       
 1.5          0.99952     -3.7758       2.9261       176.59       0.0081313    87.506       0.82622     -2.1728      
 1.6          0.99946     -4.0274       2.9259       176.36       0.0086725    87.34        0.82616     -2.3176      
 1.7          0.99939     -4.2789       2.9256       176.14       0.0092136    87.174       0.82609     -2.4623      
 1.8          0.99932     -4.5304       2.9253       175.91       0.0097545    87.008       0.82601     -2.607       
 1.9          0.99924     -4.7818       2.925        175.68       0.010295     86.842       0.82594     -2.7517      
 2            0.99916     -5.0332       2.9247       175.46       0.010836     86.676       0.82585     -2.8963      
 2.1          0.99907     -5.2846       2.9244       175.23       0.011376     86.51        0.82577     -3.0409      
 2.2          0.99898     -5.5359       2.924        175          0.011916     86.344       0.82568     -3.1855      
 2.3          0.99888     -5.7872       2.9236       174.78       0.012456     86.178       0.82558     -3.3301      
 2.4          0.99879     -6.0384       2.9232       174.55       0.012996     86.012       0.82548     -3.4747      
 2.5          0.99868     -6.2896       2.9228       174.32       0.013535     85.847       0.82538     -3.6192      
 2.6          0.99858     -6.5407       2.9224       174.1        0.014075     85.681       0.82527     -3.7637      
 2.7          0.99846     -6.7918       2.922        173.87       0.014614     85.515       0.82516     -3.9081      
 2.8          0.99835     -7.0428       2.9215       173.64       0.015152     85.35        0.82505     -4.0525      
 2.9          0.99823     -7.2938       2.9211       173.42       0.015691     85.184       0.82493     -4.1969      
 3            0.99811     -7.5447       2.9206       173.19       0.016229     85.018       0.82481     -4.3412      
 3.1          0.99798     -7.7955       2.9201       172.96       0.016767     84.853       0.82468     -4.4855      
 3.2          0.99785     -8.0463       2.9196       172.74       0.017304     84.687       0.82455     -4.6298      
 3.3          0.99771     -8.297        2.919        172.51       0.017841     84.522       0.82441     -4.774       
 3.4          0.99757     -8.5477       2.9185       172.28       0.018378     84.357       0.82427     -4.9181      
 3.5          0.99743     -8.7983       2.9179       172.06       0.018915     84.191       0.82413     -5.0623      
 3.6          0.99728     -9.0488       2.9174       171.83       0.019451     84.026       0.82398     -5.2064      
 3.7          0.99713     -9.2992       2.9168       171.6        0.019987     83.861       0.82383     -5.3504      
 3.8          0.99697     -9.5496       2.9161       171.38       0.020522     83.696       0.82367     -5.4944      
 3.9          0.99681     -9.7998       2.9155       171.15       0.021057     83.531       0.82351     -5.6383      
 4            0.99665     -10.05        2.9149       170.93       0.021592     83.366       0.82335     -5.7822      
 4.1          0.99648     -10.3         2.9142       170.7        0.022126     83.201       0.82318     -5.9261      
 4.2          0.9963      -10.55        2.9135       170.47       0.02266      83.036       0.82301     -6.0698      
 4.3          0.99613     -10.8         2.9129       170.25       0.023193     82.871       0.82283     -6.2136      
 4.4          0.99595     -11.05        2.9121       170.02       0.023726     82.707       0.82265     -6.3572      
 4.5          0.99576     -11.3         2.9114       169.8        0.024259     82.542       0.82247     -6.5009      
 4.6          0.99558     -11.549       2.9107       169.57       0.024791     82.378       0.82228     -6.6444      
 4.7          0.99538     -11.799       2.9099       169.35       0.025323     82.213       0.82209     -6.7879      
 4.8          0.99519     -12.049       2.9092       169.12       0.025854     82.049       0.82189     -6.9314      
 4.9          0.99499     -12.298       2.9084       168.9        0.026385     81.884       0.82169     -7.0748      
 5            0.99478     -12.547       2.9076       168.67       0.026915     81.72        0.82148     -7.2181      
 5.1          0.99457     -12.797       2.9068       168.45       0.027445     81.556       0.82128     -7.3613      
 5.2          0.99436     -13.046       2.9059       168.22       0.027975     81.392       0.82107     -7.5045      
 5.3          0.99415     -13.295       2.9051       168          0.028503     81.228       0.82085     -7.6477      
 5.4          0.99393     -13.544       2.9042       167.77       0.029032     81.064       0.82063     -7.7907      
 5.5          0.9937      -13.792       2.9034       167.55       0.02956      80.9         0.82041     -7.9337      
 5.6          0.99348     -14.041       2.9025       167.32       0.030087     80.737       0.82018     -8.0766      
 5.7          0.99324     -14.29        2.9016       167.1        0.030614     80.573       0.81995     -8.2195      
 5.8          0.99301     -14.538       2.9006       166.87       0.03114      80.41        0.81971     -8.3623      
 5.9          0.99277     -14.786       2.8997       166.65       0.031665     80.246       0.81947     -8.505       
 6            0.99253     -15.035       2.8988       166.42       0.032191     80.083       0.81923     -8.6476      
 6.1          0.99228     -15.283       2.8978       166.2        0.032715     79.92        0.81898     -8.7902      
 6.2          0.99203     -15.531       2.8968       165.98       0.033239     79.757       0.81873     -8.9327      
 6.3          0.99178     -15.778       2.8958       165.75       0.033762     79.594       0.81848     -9.0751      
 6.4          0.99152     -16.026       2.8948       165.53       0.034285     79.431       0.81822     -9.2174      
 6.5          0.99126     -16.274       2.8938       165.3        0.034807     79.268       0.81796     -9.3597      
 6.6          0.99099     -16.521       2.8927       165.08       0.035329     79.105       0.81769     -9.5018      
 6.7          0.99072     -16.769       2.8917       164.86       0.03585      78.943       0.81742     -9.6439      
 6.8          0.99045     -17.016       2.8906       164.63       0.03637      78.78        0.81715     -9.786       
 6.9          0.99017     -17.263       2.8895       164.41       0.036889     78.618       0.81688     -9.9279      
 7            0.9899      -17.51        2.8884       164.19       0.037408     78.456       0.81659     -10.07       
 7.1          0.98961     -17.757       2.8873       163.96       0.037927     78.293       0.81631     -10.211      
 7.2          0.98932     -18.003       2.8862       163.74       0.038444     78.131       0.81602     -10.353      
 7.3          0.98903     -18.25        2.8851       163.52       0.038961     77.97        0.81573     -10.495      
 7.4          0.98874     -18.496       2.8839       163.3        0.039478     77.808       0.81544     -10.636      
 7.5          0.98844     -18.743       2.8827       163.07       0.039993     77.646       0.81514     -10.778      
 7.6          0.98814     -18.989       2.8816       162.85       0.040508     77.485       0.81484     -10.919      
 7.7          0.98784     -19.235       2.8804       162.63       0.041022     77.323       0.81453     -11.06       
 7.8          0.98753     -19.48        2.8791       162.41       0.041536     77.162       0.81422     -11.201      
 7.9          0.98721     -19.726       2.8779       162.18       0.042049     77.001       0.81391     -11.342      
 8            0.9869      -19.972       2.8767       161.96       0.042561     76.84        0.81359     -11.483      
 8.1          0.98658     -20.217       2.8754       161.74       0.043072     76.679       0.81327     -11.624      
 8.2          0.98626     -20.462       2.8742       161.52       0.043583     76.518       0.81295     -11.765      
 8.3          0.98593     -20.707       2.8729       161.3        0.044093     76.357       0.81262     -11.906      
 8.4          0.9856      -20.952       2.8716       161.08       0.044602     76.197       0.81229     -12.046      
 8.5          0.98527     -21.197       2.8703       160.85       0.04511      76.037       0.81196     -12.187      
 8.6          0.98493     -21.441       2.869        160.63       0.045618     75.876       0.81162     -12.327      
 8.7          0.98459     -21.686       2.8676       160.41       0.046124     75.716       0.81128     -12.467      
 8.8          0.98425     -21.93        2.8663       160.19       0.04663      75.556       0.81094     -12.607      
 8.9          0.98391     -22.174       2.8649       159.97       0.047136     75.396       0.81059     -12.747      
 9            0.98356     -22.418       2.8636       159.75       0.04764      75.237       0.81024     -12.887      
 9.1          0.9832      -22.662       2.8622       159.53       0.048144     75.077       0.80988     -13.027      
 9.2          0.98285     -22.905       2.8608       159.31       0.048646     74.918       0.80953     -13.167      
 9.3          0.98249     -23.149       2.8594       159.09       0.049148     74.759       0.80916     -13.307      
 9.4          0.98213     -23.392       2.8579       158.87       0.049649     74.599       0.8088      -13.446      
 9.5          0.98176     -23.635       2.8565       158.65       0.05015      74.44        0.80843     -13.585      
 9.6          0.98139     -23.878       2.855        158.43       0.050649     74.282       0.80806     -13.725      
 9.7          0.98102     -24.12        2.8536       158.21       0.051148     74.123       0.80769     -13.864      
 9.8          0.98064     -24.363       2.8521       157.99       0.051646     73.964       0.80731     -14.003      
 9.9          0.98027     -24.605       2.8506       157.77       0.052143     73.806       0.80693     -14.142      
 10           0.97989     -24.847       2.8491       157.55       0.052639     73.648       0.80655     -14.281      
 10.1         0.9795      -25.089       2.8476       157.33       0.053134     73.49        0.80616     -14.42       
 10.2         0.97911     -25.331       2.8461       157.11       0.053628     73.332       0.80577     -14.558      
 10.3         0.97872     -25.572       2.8445       156.9        0.054122     73.174       0.80538     -14.697      
 10.4         0.97833     -25.814       2.843        156.68       0.054614     73.017       0.80498     -14.835      
 10.5         0.97793     -26.055       2.8414       156.46       0.055106     72.859       0.80458     -14.974      
 10.6         0.97753     -26.296       2.8399       156.24       0.055597     72.702       0.80418     -15.112      
 10.7         0.97713     -26.537       2.8383       156.02       0.056086     72.545       0.80377     -15.25       
 10.8         0.97672     -26.777       2.8367       155.8        0.056575     72.388       0.80337     -15.388      
 10.9         0.97632     -27.018       2.8351       155.59       0.057063     72.231       0.80295     -15.526      
 11           0.9759      -27.258       2.8334       155.37       0.05755      72.074       0.80254     -15.663      
 11.1         0.97549     -27.498       2.8318       155.15       0.058037     71.918       0.80212     -15.801      
 11.2         0.97507     -27.738       2.8302       154.93       0.058522     71.762       0.8017      -15.938      
 11.3         0.97465     -27.977       2.8285       154.72       0.059006     71.606       0.80128     -16.076      
 11.4         0.97423     -28.217       2.8268       154.5        0.05949      71.45        0.80085     -16.213      
 11.5         0.9738      -28.456       2.8252       154.28       0.059972     71.294       0.80042     -16.35       
 11.6         0.97338     -28.695       2.8235       154.07       0.060453     71.138       0.79999     -16.487      
 11.7         0.97295     -28.934       2.8218       153.85       0.060934     70.983       0.79956     -16.624      
 11.8         0.97251     -29.172       2.8201       153.64       0.061413     70.828       0.79912     -16.76       
 11.9         0.97207     -29.411       2.8183       153.42       0.061892     70.672       0.79868     -16.897      
 12           0.97164     -29.649       2.8166       153.2        0.06237      70.518       0.79823     -17.034      
 12.1         0.97119     -29.887       2.8149       152.99       0.062846     70.363       0.79779     -17.17       
 12.2         0.97075     -30.125       2.8131       152.77       0.063322     70.208       0.79734     -17.306      
 12.3         0.9703      -30.362       2.8113       152.56       0.063796     70.054       0.79689     -17.442      
 12.4         0.96985     -30.599       2.8096       152.34       0.06427      69.9         0.79643     -17.578      
 12.5         0.9694      -30.836       2.8078       152.13       0.064743     69.746       0.79597     -17.714      
 12.6         0.96894     -31.073       2.806        151.91       0.065214     69.592       0.79551     -17.85       
 12.7         0.96849     -31.31        2.8042       151.7        0.065685     69.438       0.79505     -17.985      
 12.8         0.96803     -31.546       2.8024       151.48       0.066155     69.285       0.79459     -18.121      
 12.9         0.96756     -31.783       2.8005       151.27       0.066623     69.131       0.79412     -18.256      
 13           0.9671      -32.018       2.7987       151.06       0.067091     68.978       0.79365     -18.391      
 13.1         0.96663     -32.254       2.7968       150.84       0.067557     68.825       0.79317     -18.526      
 13.2         0.96616     -32.49        2.795        150.63       0.068023     68.673       0.7927      -18.661      
 13.3         0.96569     -32.725       2.7931       150.41       0.068487     68.52        0.79222     -18.796      
 13.4         0.96521     -32.96        2.7912       150.2        0.068951     68.368       0.79174     -18.931      
 13.5         0.96474     -33.195       2.7893       149.99       0.069413     68.215       0.79126     -19.065      
 13.6         0.96426     -33.43        2.7874       149.78       0.069874     68.063       0.79077     -19.2        
 13.7         0.96377     -33.664       2.7855       149.56       0.070335     67.912       0.79028     -19.334      
 13.8         0.96329     -33.898       2.7836       149.35       0.070794     67.76        0.78979     -19.468      
 13.9         0.9628      -34.132       2.7817       149.14       0.071252     67.609       0.7893      -19.602      
 14           0.96232     -34.366       2.7798       148.93       0.071709     67.457       0.7888      -19.736      
 14.1         0.96182     -34.599       2.7778       148.71       0.072165     67.306       0.7883      -19.869      
 14.2         0.96133     -34.832       2.7759       148.5        0.07262      67.156       0.7878      -20.003      
 14.3         0.96084     -35.065       2.7739       148.29       0.073074     67.005       0.7873      -20.136      
 14.4         0.96034     -35.298       2.7719       148.08       0.073527     66.854       0.78679     -20.27       
 14.5         0.95984     -35.53        2.7699       147.87       0.073979     66.704       0.78629     -20.403      
 14.6         0.95934     -35.763       2.7679       147.66       0.07443      66.554       0.78578     -20.536      
 14.7         0.95883     -35.995       2.7659       147.45       0.074879     66.404       0.78527     -20.669      
 14.8         0.95833     -36.226       2.7639       147.24       0.075328     66.255       0.78475     -20.801      
 14.9         0.95782     -36.458       2.7619       147.03       0.075775     66.105       0.78423     -20.934      
 15           0.95731     -36.689       2.7599       146.82       0.076222     65.956       0.78372     -21.066      
 15.1         0.95679     -36.92        2.7579       146.61       0.076667     65.807       0.78319     -21.199      
 15.2         0.95628     -37.151       2.7558       146.4        0.077111     65.658       0.78267     -21.331      
 15.3         0.95576     -37.382       2.7538       146.19       0.077554     65.509       0.78215     -21.463      
 15.4         0.95525     -37.612       2.7517       145.98       0.077996     65.361       0.78162     -21.595      
 15.5         0.95473     -37.842       2.7496       145.77       0.078437     65.213       0.78109     -21.727      
 15.6         0.9542      -38.072       2.7476       145.56       0.078877     65.065       0.78056     -21.858      
 15.7         0.95368     -38.301       2.7455       145.35       0.079315     64.917       0.78002     -21.99       
 15.8         0.95315     -38.53        2.7434       145.14       0.079753     64.769       0.77949     -22.121      
 15.9         0.95263     -38.76        2.7413       144.94       0.080189     64.622       0.77895     -22.252      
 16           0.9521      -38.988       2.7392       144.73       0.080624     64.475       0.77841     -22.383      
 16.1         0.95157     -39.217       2.7371       144.52       0.081058     64.328       0.77787     -22.514      
 16.2         0.95103     -39.445       2.735        144.31       0.081491     64.181       0.77733     -22.645      
 16.3         0.9505      -39.673       2.7328       144.1        0.081923     64.034       0.77678     -22.776      
 16.4         0.94996     -39.901       2.7307       143.9        0.082354     63.888       0.77623     -22.906      
 16.5         0.94942     -40.128       2.7285       143.69       0.082784     63.742       0.77568     -23.036      
 16.6         0.94888     -40.356       2.7264       143.48       0.083212     63.596       0.77513     -23.167      
 16.7         0.94834     -40.583       2.7242       143.28       0.08364      63.45        0.77458     -23.297      
 16.8         0.9478      -40.809       2.7221       143.07       0.084066     63.304       0.77402     -23.426      
 16.9         0.94725     -41.036       2.7199       142.86       0.084491     63.159       0.77347     -23.556      
 17           0.94671     -41.262       2.7177       142.66       0.084915     63.014       0.77291     -23.686      
 17.1         0.94616     -41.488       2.7155       142.45       0.085338     62.869       0.77235     -23.815      
 17.2         0.94561     -41.714       2.7133       142.25       0.085759     62.724       0.77178     -23.945      
 17.3         0.94506     -41.939       2.7111       142.04       0.08618      62.58        0.77122     -24.074      
 17.4         0.9445      -42.164       2.7089       141.84       0.086599     62.435       0.77065     -24.203      
 17.5         0.94395     -42.389       2.7067       141.63       0.087017     62.291       0.77009     -24.332      
 17.6         0.94339     -42.614       2.7045       141.43       0.087434     62.148       0.76952     -24.46       
 17.7         0.94283     -42.838       2.7023       141.22       0.08785      62.004       0.76894     -24.589      
 17.8         0.94228     -43.062       2.7          141.02       0.088265     61.861       0.76837     -24.717      
 17.9         0.94172     -43.286       2.6978       140.82       0.088679     61.717       0.7678      -24.846      
 18           0.94115     -43.509       2.6956       140.61       0.089091     61.574       0.76722     -24.974      
 18.1         0.94059     -43.733       2.6933       140.41       0.089503     61.432       0.76664     -25.102      
 18.2         0.94003     -43.956       2.6911       140.2        0.089913     61.289       0.76607     -25.23       
 18.3         0.93946     -44.178       2.6888       140          0.090322     61.147       0.76548     -25.357      
 18.4         0.93889     -44.401       2.6865       139.8        0.09073      61.005       0.7649      -25.485      
 18.5         0.93832     -44.623       2.6842       139.6        0.091136     60.863       0.76432     -25.612      
 18.6         0.93776     -44.845       2.682        139.39       0.091542     60.721       0.76373     -25.74       
 18.7         0.93718     -45.067       2.6797       139.19       0.091946     60.58        0.76315     -25.867      
 18.8         0.93661     -45.288       2.6774       138.99       0.092349     60.438       0.76256     -25.994      
 18.9         0.93604     -45.509       2.6751       138.79       0.092751     60.297       0.76197     -26.121      
 19           0.93546     -45.73        2.6728       138.59       0.093152     60.157       0.76138     -26.247      
 19.1         0.93489     -45.95        2.6705       138.39       0.093552     60.016       0.76078     -26.374      
 19.2         0.93431     -46.171       2.6682       138.18       0.09395      59.876       0.76019     -26.5        
 19.3         0.93373     -46.391       2.6659       137.98       0.094348     59.736       0.7596      -26.627      
 19.4         0.93315     -46.61        2.6635       137.78       0.094744     59.596       0.759       -26.753      
 19.5         0.93257     -46.83        2.6612       137.58       0.095139     59.456       0.7584      -26.879      
 19.6         0.93199     -47.049       2.6589       137.38       0.095533     59.316       0.7578      -27.005      
 19.7         0.93141     -47.268       2.6565       137.18       0.095925     59.177       0.7572      -27.13       
 19.8         0.93083     -47.487       2.6542       136.98       0.096317     59.038       0.7566      -27.256      
 19.9         0.93024     -47.705       2.6518       136.78       0.096707     58.899       0.756       -27.381      
 20           0.92966     -47.923       2.6495       136.58       0.097097     58.761       0.75539     -27.506      
 20.1         0.92907     -48.141       2.6471       136.38       0.097485     58.623       0.75478     -27.631      
 20.2         0.92848     -48.358       2.6448       136.19       0.097871     58.484       0.75418     -27.756      
 20.3         0.92789     -48.576       2.6424       135.99       0.098257     58.346       0.75357     -27.881      
 20.4         0.9273      -48.793       2.64         135.79       0.098642     58.209       0.75296     -28.006      
 20.5         0.92671     -49.009       2.6377       135.59       0.099025     58.071       0.75235     -28.13       
 20.6         0.92612     -49.226       2.6353       135.39       0.099407     57.934       0.75174     -28.255      
 20.7         0.92553     -49.442       2.6329       135.2        0.099788     57.797       0.75113     -28.379      
 20.8         0.92494     -49.657       2.6305       135          0.10017      57.66        0.75051     -28.503      
 20.9         0.92434     -49.873       2.6281       134.8        0.10055      57.524       0.7499      -28.627      
 21           0.92375     -50.088       2.6257       134.6        0.10092      57.387       0.74928     -28.751      
 21.1         0.92315     -50.303       2.6233       134.41       0.1013       57.251       0.74866     -28.875      
 21.2         0.92256     -50.518       2.6209       134.21       0.10168      57.115       0.74805     -28.998      
 21.3         0.92196     -50.732       2.6185       134.01       0.10205      56.98        0.74743     -29.121      
 21.4         0.92136     -50.946       2.6161       133.82       0.10242      56.844       0.74681     -29.245      
 21.5         0.92076     -51.16        2.6137       133.62       0.10279      56.709       0.74618     -29.368      
 21.6         0.92016     -51.374       2.6113       133.43       0.10316      56.574       0.74556     -29.491      
 21.7         0.91956     -51.587       2.6089       133.23       0.10353      56.439       0.74494     -29.613      
 21.8         0.91896     -51.8         2.6064       133.04       0.1039       56.305       0.74431     -29.736      
 21.9         0.91836     -52.013       2.604        132.84       0.10427      56.171       0.74369     -29.859      
 22           0.91776     -52.225       2.6016       132.65       0.10464      56.037       0.74306     -29.981      
 22.1         0.91716     -52.437       2.5991       132.45       0.105        55.903       0.74244     -30.103      
 22.2         0.91655     -52.649       2.5967       132.26       0.10536      55.769       0.74181     -30.225      
 22.3         0.91595     -52.861       2.5943       132.06       0.10573      55.636       0.74118     -30.347      
 22.4         0.91535     -53.072       2.5918       131.87       0.10609      55.503       0.74055     -30.469      
 22.5         0.91474     -53.283       2.5894       131.68       0.10645      55.37        0.73992     -30.591      
 22.6         0.91414     -53.494       2.5869       131.48       0.10681      55.237       0.73929     -30.712      
 22.7         0.91353     -53.704       2.5845       131.29       0.10716      55.104       0.73866     -30.834      
 22.8         0.91292     -53.914       2.582        131.1        0.10752      54.972       0.73803     -30.955      
 22.9         0.91232     -54.124       2.5796       130.9        0.10788      54.84        0.73739     -31.076      
 23           0.91171     -54.333       2.5771       130.71       0.10823      54.708       0.73676     -31.197      
 23.1         0.9111      -54.543       2.5746       130.52       0.10858      54.577       0.73612     -31.318      
 23.2         0.91049     -54.752       2.5722       130.33       0.10894      54.445       0.73549     -31.439      
 23.3         0.90988     -54.96        2.5697       130.14       0.10929      54.314       0.73485     -31.559      
 23.4         0.90928     -55.169       2.5672       129.94       0.10964      54.183       0.73421     -31.68       
 23.5         0.90867     -55.377       2.5648       129.75       0.10998      54.053       0.73358     -31.8        
 23.6         0.90806     -55.585       2.5623       129.56       0.11033      53.922       0.73294     -31.92       
 23.7         0.90745     -55.792       2.5598       129.37       0.11068      53.792       0.7323      -32.04       
 23.8         0.90684     -55.999       2.5573       129.18       0.11102      53.662       0.73166     -32.16       
 23.9         0.90622     -56.206       2.5548       128.99       0.11137      53.532       0.73102     -32.28       
 24           0.90561     -56.413       2.5524       128.8        0.11171      53.403       0.73038     -32.399      
 24.1         0.905       -56.619       2.5499       128.61       0.11205      53.273       0.72974     -32.519      
 24.2         0.90439     -56.825       2.5474       128.42       0.11239      53.144       0.72909     -32.638      
 24.3         0.90378     -57.031       2.5449       128.23       0.11273      53.015       0.72845     -32.757      
 24.4         0.90317     -57.237       2.5424       128.04       0.11307      52.887       0.72781     -32.876      
 24.5         0.90255     -57.442       2.5399       127.85       0.11341      52.758       0.72716     -32.995      
 24.6         0.90194     -57.647       2.5374       127.66       0.11374      52.63        0.72652     -33.114      
 24.7         0.90133     -57.851       2.5349       127.48       0.11408      52.502       0.72588     -33.233      
 24.8         0.90071     -58.056       2.5324       127.29       0.11441      52.374       0.72523     -33.351      
 24.9         0.9001      -58.26        2.5299       127.1        0.11474      52.247       0.72459     -33.47       